ITEM: TIMESTEP
1
ITEM: NUMBER OF ATOMS
5
ITEM: BOX BOUNDS ff ff ff
0.0 100
0.0 100
0.0 100
ITEM: ATOMS id x y z
0 42.4586 30.6308 37.4906
1 66.9932 62.7895 57.0394
2 38.8722 91.2107 5.49662
3 18.0021 28.4928 70.2331
4 25.7865 70.7618 17.0263
