ITEM: TIMESTEP
10
ITEM: NUMBER OF ATOMS
5
ITEM: BOX BOUNDS ff ff ff
0.0 100
0.0 100
0.0 100
ITEM: ATOMS id x y z
0 85.3503 75.4355 54.4896
1 91.313 97.8869 65.9919
2 62.2211 75.0728 13.7021
3 32.5795 34.0831 96.4775
4 63.9336 73.4638 55.5435
