ITEM: TIMESTEP
11
ITEM: NUMBER OF ATOMS
5
ITEM: BOX BOUNDS ff ff ff
0.0 100
0.0 100
0.0 100
ITEM: ATOMS id x y z
0 90.116 80.4137 56.3784
1 94.0152 93.5176 66.9867
2 64.8154 71.3266 14.6138
3 34.1992 34.7042 92.7787
4 68.1722 73.7641 59.8232
