ITEM: TIMESTEP
12
ITEM: NUMBER OF ATOMS
5
ITEM: BOX BOUNDS ff ff ff
0.0 100
0.0 100
0.0 100
ITEM: ATOMS id x y z
0 94.8818 85.392 58.2671
1 96.7174 89.1483 67.9814
2 67.4097 67.5803 15.5255
3 35.8189 35.3254 89.0798
4 72.4107 74.0643 64.1028
