ITEM: TIMESTEP
15
ITEM: NUMBER OF ATOMS
5
ITEM: BOX BOUNDS ff ff ff
0.0 100
0.0 100
0.0 100
ITEM: ATOMS id x y z
0 90.821 99.6731 63.9335
1 95.176 76.0405 70.9656
2 75.1926 56.3415 18.2607
3 40.6781 37.1888 77.9834
4 85.1264 74.965 76.9419
