ITEM: TIMESTEP
18
ITEM: NUMBER OF ATOMS
5
ITEM: BOX BOUNDS ff ff ff
0.0 100
0.0 100
0.0 100
ITEM: ATOMS id x y z
0 76.5237 84.7382 69.5998
1 87.0694 62.9326 73.9498
2 82.9756 45.1027 20.9958
3 45.5372 39.0522 66.8869
4 97.8421 75.8657 89.781
