ITEM: TIMESTEP
2
ITEM: NUMBER OF ATOMS
5
ITEM: BOX BOUNDS ff ff ff
0.0 100
0.0 100
0.0 100
ITEM: ATOMS id x y z
0 47.2243 35.6091 39.3793
1 69.6954 67.1588 58.0341
2 41.4665 94.957 6.40834
3 19.6218 29.1139 73.932
4 30.025 71.062 21.306
