ITEM: TIMESTEP
20
ITEM: NUMBER OF ATOMS
5
ITEM: BOX BOUNDS ff ff ff
0.0 100
0.0 100
0.0 100
ITEM: ATOMS id x y z
0 66.9922 74.7816 73.3774
1 81.665 54.194 75.9392
2 88.1642 37.6101 22.8193
3 48.7766 40.2945 59.4893
4 93.6807 76.4661 98.3403
