ITEM: TIMESTEP
21
ITEM: NUMBER OF ATOMS
5
ITEM: BOX BOUNDS ff ff ff
0.0 100
0.0 100
0.0 100
ITEM: ATOMS id x y z
0 62.2265 69.8033 75.2661
1 78.9628 49.8248 76.9339
2 90.7585 33.8638 23.731
3 50.3963 40.9157 55.7905
4 89.4422 76.7663 97.38
