ITEM: TIMESTEP
22
ITEM: NUMBER OF ATOMS
5
ITEM: BOX BOUNDS ff ff ff
0.0 100
0.0 100
0.0 100
ITEM: ATOMS id x y z
0 57.4607 64.825 77.1549
1 76.2606 45.4555 77.9287
2 93.3529 30.1176 24.6427
3 52.0161 41.5368 52.0916
4 85.2036 77.0666 93.1003
