ITEM: TIMESTEP
23
ITEM: NUMBER OF ATOMS
5
ITEM: BOX BOUNDS ff ff ff
0.0 100
0.0 100
0.0 100
ITEM: ATOMS id x y z
0 52.695 59.8467 79.0437
1 73.5584 41.0862 78.9234
2 95.9472 26.3713 25.5544
3 53.6358 42.158 48.3928
4 80.965 77.3668 88.8206
