ITEM: TIMESTEP
26
ITEM: NUMBER OF ATOMS
5
ITEM: BOX BOUNDS ff ff ff
0.0 100
0.0 100
0.0 100
ITEM: ATOMS id x y z
0 38.3978 44.9118 84.71
1 65.4518 27.9783 81.9076
2 96.2699 15.1325 28.2896
3 58.4949 44.0214 37.2964
4 68.2493 78.2675 75.9816
