ITEM: TIMESTEP
27
ITEM: NUMBER OF ATOMS
5
ITEM: BOX BOUNDS ff ff ff
0.0 100
0.0 100
0.0 100
ITEM: ATOMS id x y z
0 33.632 39.9335 86.5988
1 62.7496 23.609 82.9023
2 93.6756 11.3862 29.2013
3 60.1146 44.6425 33.5975
4 64.0108 78.5677 71.7019
