ITEM: TIMESTEP
28
ITEM: NUMBER OF ATOMS
5
ITEM: BOX BOUNDS ff ff ff
0.0 100
0.0 100
0.0 100
ITEM: ATOMS id x y z
0 28.8663 34.9552 88.4876
1 60.0474 19.2398 83.897
2 91.0812 7.63992 30.113
3 61.7343 45.2637 29.8987
4 59.7722 78.868 67.4222
