ITEM: TIMESTEP
3
ITEM: NUMBER OF ATOMS
5
ITEM: BOX BOUNDS ff ff ff
0.0 100
0.0 100
0.0 100
ITEM: ATOMS id x y z
0 51.9901 40.5874 41.2681
1 72.3976 71.5281 59.0288
2 44.0608 98.7032 7.32006
3 21.2415 29.7351 77.6308
4 34.2636 71.3622 25.5857
