ITEM: TIMESTEP
30
ITEM: NUMBER OF ATOMS
5
ITEM: BOX BOUNDS ff ff ff
0.0 100
0.0 100
0.0 100
ITEM: ATOMS id x y z
0 19.3348 24.9986 92.2652
1 54.643 10.5012 85.8865
2 85.8926 0.147375 31.9365
3 64.9738 46.506 22.5011
4 51.2951 79.4684 58.8628
