ITEM: TIMESTEP
32
ITEM: NUMBER OF ATOMS
5
ITEM: BOX BOUNDS ff ff ff
0.0 100
0.0 100
0.0 100
ITEM: ATOMS id x y z
0 9.80328 15.042 96.0427
1 49.2386 1.76261 87.8759
2 80.704 7.34517 33.7599
3 68.2132 47.7483 15.1034
4 42.8179 80.0689 50.3034
