ITEM: TIMESTEP
33
ITEM: NUMBER OF ATOMS
5
ITEM: BOX BOUNDS ff ff ff
0.0 100
0.0 100
0.0 100
ITEM: ATOMS id x y z
0 5.03753 10.0637 97.9315
1 46.5364 2.60667 88.8707
2 78.1096 11.0914 34.6716
3 69.8329 48.3694 11.4046
4 38.5793 80.3691 46.0238
