ITEM: TIMESTEP
35
ITEM: NUMBER OF ATOMS
5
ITEM: BOX BOUNDS ff ff ff
0.0 100
0.0 100
0.0 100
ITEM: ATOMS id x y z
0 4.49396 0.107113 98.2909
1 41.132 11.3452 90.8601
2 72.921 18.584 36.495
3 73.0723 49.6117 4.00698
4 30.1022 80.9696 37.4644
