ITEM: TIMESTEP
36
ITEM: NUMBER OF ATOMS
5
ITEM: BOX BOUNDS ff ff ff
0.0 100
0.0 100
0.0 100
ITEM: ATOMS id x y z
0 9.25971 4.87118 96.4022
1 38.4298 15.7145 91.8549
2 70.3267 22.3303 37.4068
3 74.6921 50.2329 0.308158
4 25.8636 81.2698 33.1847
