ITEM: TIMESTEP
37
ITEM: NUMBER OF ATOMS
5
ITEM: BOX BOUNDS ff ff ff
0.0 100
0.0 100
0.0 100
ITEM: ATOMS id x y z
0 14.0255 9.84948 94.5134
1 35.7276 20.0838 92.8496
2 67.7324 26.0765 38.3185
3 76.3118 50.854 3.39066
4 21.6251 81.57 28.905
