ITEM: TIMESTEP
39
ITEM: NUMBER OF ATOMS
5
ITEM: BOX BOUNDS ff ff ff
0.0 100
0.0 100
0.0 100
ITEM: ATOMS id x y z
0 23.557 19.8061 90.7358
1 30.3232 28.8224 94.839
2 62.5437 33.5691 40.1419
3 79.5512 52.0963 10.7883
4 13.1479 82.1705 20.3456
