ITEM: TIMESTEP
4
ITEM: NUMBER OF ATOMS
5
ITEM: BOX BOUNDS ff ff ff
0.0 100
0.0 100
0.0 100
ITEM: ATOMS id x y z
0 56.7558 45.5657 43.1569
1 75.0998 75.8974 60.0236
2 46.6552 97.5505 8.23178
3 22.8612 30.3562 81.3296
4 38.5022 71.6625 29.8654
