ITEM: TIMESTEP
42
ITEM: NUMBER OF ATOMS
5
ITEM: BOX BOUNDS ff ff ff
0.0 100
0.0 100
0.0 100
ITEM: ATOMS id x y z
0 37.8542 34.741 85.0695
1 22.2166 41.9302 97.8232
2 54.7608 44.8079 42.8771
3 84.4103 53.9597 21.8848
4 0.432231 83.0712 7.50659
