ITEM: TIMESTEP
44
ITEM: NUMBER OF ATOMS
5
ITEM: BOX BOUNDS ff ff ff
0.0 100
0.0 100
0.0 100
ITEM: ATOMS id x y z
0 47.3857 44.6976 81.2919
1 16.8122 50.6688 99.8127
2 49.5722 52.3004 44.7005
3 87.6498 55.202 29.2824
4 8.04491 83.6716 1.05278
