ITEM: TIMESTEP
45
ITEM: NUMBER OF ATOMS
5
ITEM: BOX BOUNDS ff ff ff
0.0 100
0.0 100
0.0 100
ITEM: ATOMS id x y z
0 52.1514 49.6759 79.4031
1 14.11 55.0381 99.1926
2 46.9778 56.0467 45.6122
3 89.2695 55.8232 32.9812
4 12.2835 83.9718 5.33247
