ITEM: TIMESTEP
50
ITEM: NUMBER OF ATOMS
5
ITEM: BOX BOUNDS ff ff ff
0.0 100
0.0 100
0.0 100
ITEM: ATOMS id x y z
0 75.9802 74.5673 69.9592
1 0.598952 76.8845 94.219
2 34.0063 74.7781 50.1708
3 97.368 58.9289 51.4753
4 33.4763 85.473 26.7309
