ITEM: TIMESTEP
52
ITEM: NUMBER OF ATOMS
5
ITEM: BOX BOUNDS ff ff ff
0.0 100
0.0 100
0.0 100
ITEM: ATOMS id x y z
0 85.5117 84.5239 66.1817
1 4.80545 85.6231 92.2295
2 28.8176 82.2706 51.9943
3 99.3925 60.1712 58.873
4 41.9535 86.0734 35.2903
