ITEM: TIMESTEP
54
ITEM: NUMBER OF ATOMS
5
ITEM: BOX BOUNDS ff ff ff
0.0 100
0.0 100
0.0 100
ITEM: ATOMS id x y z
0 95.0432 94.4805 62.4041
1 10.2099 94.3617 90.24
2 23.629 89.7632 53.8177
3 96.1531 61.4135 66.2706
4 50.4306 86.6739 43.8496
