ITEM: TIMESTEP
55
ITEM: NUMBER OF ATOMS
5
ITEM: BOX BOUNDS ff ff ff
0.0 100
0.0 100
0.0 100
ITEM: ATOMS id x y z
0 99.8089 99.4588 60.5153
1 12.9121 98.731 89.2453
2 21.0347 93.5095 54.7294
3 94.5334 62.0346 69.9694
4 54.6692 86.9741 48.1293
