ITEM: TIMESTEP
56
ITEM: NUMBER OF ATOMS
5
ITEM: BOX BOUNDS ff ff ff
0.0 100
0.0 100
0.0 100
ITEM: ATOMS id x y z
0 95.4253 95.5629 58.6266
1 15.6143 96.8997 88.2506
2 18.4404 97.2557 55.6411
3 92.9137 62.6558 73.6682
4 58.9077 87.2744 52.409
