ITEM: TIMESTEP
57
ITEM: NUMBER OF ATOMS
5
ITEM: BOX BOUNDS ff ff ff
0.0 100
0.0 100
0.0 100
ITEM: ATOMS id x y z
0 90.6596 90.5846 56.7378
1 18.3165 92.5305 87.2559
2 15.846 98.998 56.5528
3 91.294 63.2769 77.3671
4 63.1463 87.5746 56.6887
