ITEM: TIMESTEP
58
ITEM: NUMBER OF ATOMS
5
ITEM: BOX BOUNDS ff ff ff
0.0 100
0.0 100
0.0 100
ITEM: ATOMS id x y z
0 85.8939 85.6063 54.849
1 21.0187 88.1612 86.2611
2 13.2517 95.2517 57.4646
3 89.6742 63.8981 81.0659
4 67.3849 87.8748 60.9684
