ITEM: TIMESTEP
60
ITEM: NUMBER OF ATOMS
5
ITEM: BOX BOUNDS ff ff ff
0.0 100
0.0 100
0.0 100
ITEM: ATOMS id x y z
0 76.3624 75.6497 51.0714
1 26.4231 79.4226 84.2717
2 8.06309 87.7592 59.288
3 86.4348 65.1403 88.4635
4 75.862 88.4753 69.5278
