ITEM: TIMESTEP
64
ITEM: NUMBER OF ATOMS
5
ITEM: BOX BOUNDS ff ff ff
0.0 100
0.0 100
0.0 100
ITEM: ATOMS id x y z
0 57.2994 55.7365 43.5163
1 37.2319 61.9455 80.2928
2 2.31418 72.7741 62.9349
3 79.956 67.6249 96.7412
4 92.8163 89.6762 86.6465
