ITEM: TIMESTEP
69
ITEM: NUMBER OF ATOMS
5
ITEM: BOX BOUNDS ff ff ff
0.0 100
0.0 100
0.0 100
ITEM: ATOMS id x y z
0 33.4706 30.845 34.0724
1 50.7429 40.099 75.3191
2 15.2858 54.0427 67.4935
3 71.8574 70.7307 78.2471
4 85.9909 91.1773 91.9551
