ITEM: TIMESTEP
7
ITEM: NUMBER OF ATOMS
5
ITEM: BOX BOUNDS ff ff ff
0.0 100
0.0 100
0.0 100
ITEM: ATOMS id x y z
0 71.053 60.5006 48.8232
1 83.2064 89.0052 63.0078
2 54.4381 86.3117 10.9669
3 27.7203 32.2196 92.4261
4 51.2179 72.5631 42.7044
