ITEM: TIMESTEP
70
ITEM: NUMBER OF ATOMS
5
ITEM: BOX BOUNDS ff ff ff
0.0 100
0.0 100
0.0 100
ITEM: ATOMS id x y z
0 28.7049 25.8667 32.1836
1 53.4451 35.7297 74.3244
2 17.8801 50.2964 68.4052
3 70.2377 71.3518 74.5483
4 81.7523 91.4776 87.6754
