ITEM: TIMESTEP
73
ITEM: NUMBER OF ATOMS
5
ITEM: BOX BOUNDS ff ff ff
0.0 100
0.0 100
0.0 100
ITEM: ATOMS id x y z
0 14.4077 10.9318 26.5173
1 61.5517 22.6219 71.3402
2 25.663 39.0576 71.1403
3 65.3785 73.2152 63.4518
4 69.0366 92.3782 74.8363
