ITEM: TIMESTEP
74
ITEM: NUMBER OF ATOMS
5
ITEM: BOX BOUNDS ff ff ff
0.0 100
0.0 100
0.0 100
ITEM: ATOMS id x y z
0 9.6419 5.95352 24.6285
1 64.2539 18.2526 70.3455
2 28.2573 35.3114 72.0521
3 63.7588 73.8364 59.753
4 64.798 92.6785 70.5567
