ITEM: TIMESTEP
76
ITEM: NUMBER OF ATOMS
5
ITEM: BOX BOUNDS ff ff ff
0.0 100
0.0 100
0.0 100
ITEM: ATOMS id x y z
0 0.11041 4.00308 20.851
1 69.6583 9.51403 68.356
2 33.446 27.8188 73.8755
3 60.5194 75.0787 52.3554
4 56.3209 93.2789 61.9973
