ITEM: TIMESTEP
79
ITEM: NUMBER OF ATOMS
5
ITEM: BOX BOUNDS ff ff ff
0.0 100
0.0 100
0.0 100
ITEM: ATOMS id x y z
0 14.1868 18.938 15.1846
1 77.7649 3.59383 65.3718
2 41.2289 16.58 76.6106
3 55.6602 76.9421 41.2589
4 43.6052 94.1796 49.1582
