ITEM: TIMESTEP
81
ITEM: NUMBER OF ATOMS
5
ITEM: BOX BOUNDS ff ff ff
0.0 100
0.0 100
0.0 100
ITEM: ATOMS id x y z
0 23.7183 28.8946 11.4071
1 83.1693 12.3324 63.3824
2 46.4176 9.08744 78.4341
3 52.4208 78.1844 33.8613
4 35.1281 94.7801 40.5989
