ITEM: TIMESTEP
85
ITEM: NUMBER OF ATOMS
5
ITEM: BOX BOUNDS ff ff ff
0.0 100
0.0 100
0.0 100
ITEM: ATOMS id x y z
0 42.7813 48.8078 3.85194
1 93.9781 29.8095 59.4035
2 56.7948 5.89765 82.081
3 45.942 80.669 19.066
4 18.1738 95.981 23.4801
