ITEM: TIMESTEP
86
ITEM: NUMBER OF ATOMS
5
ITEM: BOX BOUNDS ff ff ff
0.0 100
0.0 100
0.0 100
ITEM: ATOMS id x y z
0 47.5471 53.7861 1.96316
1 96.6803 34.1788 58.4088
2 59.3891 9.64393 82.9927
3 44.3222 81.2901 15.3672
4 13.9352 96.2812 19.2004
