ITEM: TIMESTEP
90
ITEM: NUMBER OF ATOMS
5
ITEM: BOX BOUNDS ff ff ff
0.0 100
0.0 100
0.0 100
ITEM: ATOMS id x y z
0 66.61 73.6992 5.59196
1 92.5109 51.656 54.4298
2 69.7664 24.629 86.6395
3 37.8434 83.7747 0.571889
4 3.01905 97.4821 2.08168
