ITEM: TIMESTEP
94
ITEM: NUMBER OF ATOMS
5
ITEM: BOX BOUNDS ff ff ff
0.0 100
0.0 100
0.0 100
ITEM: ATOMS id x y z
0 85.673 93.6124 13.1471
1 81.7021 69.1331 50.4509
2 80.1437 39.6141 90.2864
3 31.3645 86.2593 14.2234
4 19.9733 98.683 15.0371
