ITEM: TIMESTEP
95
ITEM: NUMBER OF ATOMS
5
ITEM: BOX BOUNDS ff ff ff
0.0 100
0.0 100
0.0 100
ITEM: ATOMS id x y z
0 90.4388 98.5907 15.0359
1 78.9999 73.5024 49.4562
2 82.738 43.3604 91.1981
3 29.7448 86.8804 17.9222
4 24.2119 98.9833 19.3167
