ITEM: TIMESTEP
97
ITEM: NUMBER OF ATOMS
5
ITEM: BOX BOUNDS ff ff ff
0.0 100
0.0 100
0.0 100
ITEM: ATOMS id x y z
0 99.9703 91.4527 18.8134
1 73.5955 82.241 47.4667
2 87.9266 50.8529 93.0216
3 26.5054 88.1227 25.3198
4 32.689 99.5837 27.8761
