ITEM: TIMESTEP
99
ITEM: NUMBER OF ATOMS
5
ITEM: BOX BOUNDS ff ff ff
0.0 100
0.0 100
0.0 100
ITEM: ATOMS id x y z
0 90.4982 81.4961 22.591
1 68.1911 90.9795 45.4773
2 93.1153 58.3455 94.845
3 23.266 89.365 32.7175
4 41.1662 99.8158 36.4355
